96
energy=-14445.644734520594 config_type=FromPyNEP pbc="T T T" Lattice="30.159 0.0 0.0 -15.08 26.119 0.0 0.0 0.0 15.0" Properties=species:S:1:pos:R:3:force:R:3
B  -5.09268000e+00  1.45789000e+01  7.15469000e+00  3.60327200e+00  3.02938000e-01  1.07405600e+00
B   4.92939000e+00  1.45892000e+01  7.19800000e+00 -1.62326500e+00  3.08598000e-01  1.93549000e+00
B   3.22238000e-01  2.33353000e+01  5.98518000e+00 -1.86004500e+00 -1.35438800e+00 -2.54677000e-01
B   1.52582000e+01  3.03976000e+00  5.35611000e+00 -2.59012800e+00 -1.42463800e+00  9.75162000e-01
B   9.92815000e+00  1.12058000e+01  7.08517000e+00 -8.63655000e-01  4.53480000e-02  1.73621000e-01
B   2.01594000e+01  1.14290000e+01  6.60662000e+00 -2.13376700e+00  1.51809000e-01  3.85617000e-01
O  -3.69042000e+00  1.39802000e+01  7.27526000e+00 -1.41800200e+00  1.93017000e-01  4.57673000e-01
O  -4.93766000e+00  1.59806000e+01  7.23511000e+00  1.65265000e-01 -9.72568000e-01 -3.06493000e-01
O   4.82612000e+00  1.60022000e+01  7.37796000e+00  5.87425000e-01  1.04284800e+00 -8.61011000e-01
O   3.56783000e+00  1.40891000e+01  7.37934000e+00  1.30814700e+00  6.60598000e-01 -5.45214000e-01
O  -9.63742000e-01  2.24846000e+01  6.20213000e+00 -8.46390000e-02  3.88452900e+00 -7.32391000e-01
O   1.39366000e+00  2.24848000e+01  6.07973000e+00 -6.54368000e-01 -2.12976900e+00  9.15943000e-01
O   1.39966000e+01  3.70510000e+00  5.74552000e+00  1.98256300e+00  2.22225000e-01 -2.77283000e-01
O   1.62378000e+01  3.91223000e+00  5.07160000e+00  1.61681000e+00 -7.14240000e-02 -8.42560000e-02
O   1.11206000e+01  1.19312000e+01  7.19828000e+00  1.48721000e+00 -1.28156900e+00 -1.00646100e+00
O   1.01112000e+01  9.83509000e+00  6.87957000e+00 -9.88730000e-02  3.45396000e-01  1.97590000e-02
O   1.88472000e+01  1.20951000e+01  6.83628000e+00  3.41548000e-01 -2.54768800e+00 -8.84039000e-01
O   2.00404000e+01  1.00838000e+01  6.15900000e+00 -1.40112800e+00  6.20007000e-01  5.09582000e-01
C  -6.31304000e+00  1.23792000e+01  6.77686000e+00  9.99100000e-01 -3.43987000e-01 -3.02182000e-01
C  -3.56538000e+00  1.62294000e+01  7.32299000e+00  4.19568000e-01  2.17592000e-01  2.61244000e-01
C  -6.33661000e+00  1.37296000e+01  7.11996000e+00 -2.28536300e+00  2.32264000e-01  6.63672000e-01
C  -2.79947000e+00  1.50221000e+01  7.51710000e+00 -1.37498600e+00  9.43537000e-01 -1.66377700e+00
C  -1.41076000e+00  1.50952000e+01  7.54030000e+00 -5.28110000e-02 -6.27635000e-01  1.40952800e+00
C  -2.99016000e+00  1.74690000e+01  7.17757000e+00  3.09682900e+00  3.35960000e-02  4.89617000e-01
C  -7.63489000e+00  1.42550000e+01  7.37414000e+00  9.22466000e-01  2.70133300e+00 -6.11417000e-01
C   1.41723000e+01  8.22840000e-01  5.77469000e+00  8.46526000e-01 -1.42621000e+00  8.81354000e-01
C   6.10487000e+00  1.22238000e+01  7.43898000e+00  1.12533000e+00  3.70072000e-01 -5.84486000e-01
C   7.26064000e+00  1.13825000e+01  7.31440000e+00 -1.33626600e+00  1.42354300e+00  7.96850000e-02
C  -6.92183000e-01  1.88807000e+01  7.14759000e+00  2.21189000e-01 -2.22463900e+00  2.19828000e-01
C   6.20413000e+00  1.36451000e+01  7.23830000e+00  2.03257000e-01 -1.94715000e-01 -2.24052000e-01
C   1.47737000e+00  1.76330000e+01  7.30754000e+00 -2.42812400e+00 -3.61640200e+00  1.51636600e+00
C  -1.49967000e+00  1.75744000e+01  7.29434000e+00 -9.17280000e-01  9.10598000e-01 -2.81921000e-01
C   7.60342000e-01  1.88260000e+01  7.19672000e+00 -2.41125400e+00  1.94315300e+00 -1.30614900e+00
C   6.97934000e-01  1.63182000e+01  7.45891000e+00 -6.09770000e-01  1.87449600e+00 -6.17584000e-01
C  -7.93728000e-01  1.63678000e+01  7.47150000e+00  1.28205100e+00  6.00730000e-02 -2.25104000e-01
C   2.83844000e+00  1.76386000e+01  7.42568000e+00  1.50738000e+00  6.14366000e-01 -1.07028700e+00
C   2.76618000e+00  1.52137000e+01  7.47043000e+00 -1.34184800e+00 -5.42478000e-01 -7.24604000e-01
C   3.45125000e+00  1.64407000e+01  7.41874000e+00  2.31859200e+00 -4.55786700e+00  4.79524000e-01
C   1.36219000e+00  1.50822000e+01  7.41213000e+00  2.78962200e+00  1.81823000e-01  9.54931000e-01
C   3.04986000e-01  2.48678000e+01  5.66254000e+00  1.18170200e+00 -2.24907800e+00  9.71388000e-01
C  -6.04860000e-01  2.12689000e+01  6.51039000e+00  8.50083000e-01 -2.96217000e+00  7.30267000e-01
C   8.00692000e-01  2.11600000e+01  6.45883000e+00 -7.27752000e-01  2.01665900e+00 -2.70344000e-01
C  -1.34050000e+00  2.00773000e+01  6.87415000e+00  5.90870000e-02  1.53300000e+00 -6.27825000e-01
C  -8.44148000e-01  2.55511000e+01  6.00903000e+00  3.36339000e-01  1.56075000e+00 -1.48981100e+00
C   1.41662000e+00  2.00209000e+01  6.80294000e+00  2.21009800e+00 -8.29863000e-01  4.84197000e-01
C   1.36850000e+01  6.14281000e+00  5.87529000e+00 -1.40954000e+00  2.65584900e+00  1.44049900e+00
C   1.44227000e+01  5.04932000e+00  5.77383000e+00 -8.55651000e-01 -2.54624900e+00 -9.37003000e-01
C   1.63557000e+01  6.32388000e+00  5.15599000e+00  2.04187500e+00  5.48368000e-01  1.38304300e+00
C   1.57220000e+01  5.13608000e+00  5.36373000e+00  1.43361000e+00  1.00397100e+00 -7.96610000e-01
C   1.53554000e+01  1.50174000e+00  5.45121000e+00 -3.94191000e-01 -1.02976000e-01 -6.47175000e-01
C   1.65455000e+01  7.51451000e-01  5.16708000e+00 -2.64265000e-01  3.21886000e+00  3.67271000e-01
C   1.14627000e+01  9.74495000e+00  6.71164000e+00 -3.93420000e-02 -5.15910000e-01  5.51740000e-02
C   1.64260000e+01  8.78809000e+00  5.64918000e+00  5.74003000e-01  9.94112000e-01  1.26457600e+00
C   1.56621000e+01  7.53078000e+00  5.53113000e+00  2.62434100e+00  7.29700000e-03 -2.39740000e-01
C   1.35200000e+01  1.10403000e+01  6.57764000e+00 -1.06398500e+00 -1.07999700e+00  3.31687000e-01
C   1.35630000e+01  8.61321000e+00  6.27293000e+00 -3.87147000e-01 -4.04980000e-02 -2.61588000e-01
C   1.42410000e+01  9.82048000e+00  6.35468000e+00  1.11147600e+00  3.01701100e+00 -7.13620000e-01
C   1.56968000e+01  1.00030000e+01  6.06489000e+00  1.57161500e+00 -1.95781100e+00  3.51479000e-01
C   8.54043000e+00  1.18871000e+01  7.11282000e+00 -5.27507000e-01  3.28539000e-01  2.41675000e-01
C   1.21510000e+01  1.09206000e+01  6.85155000e+00 -2.23860000e-01  2.92666900e+00  2.26187000e-01
C   1.43551000e+01  7.44403000e+00  5.95536000e+00 -2.94318300e+00 -1.60620600e+00 -7.68928000e-01
C   1.21340000e+01  8.63202000e+00  6.40344000e+00  2.53436500e+00 -1.64101400e+00  2.54907000e-01
C   7.52634000e+00  1.41387000e+01  7.00667000e+00 -8.70000000e-01  2.16536400e+00 -6.69071000e-01
C   8.58804000e+00  1.32635000e+01  6.95195000e+00  3.19245500e+00  1.02276700e+00  1.69960000e-01
C   1.51420000e+00  2.55216000e+01  5.30035000e+00 -1.51535000e-01 -7.32748000e-01 -5.82731000e-01
C   1.79107000e+01  8.74451000e+00  5.69284000e+00 -1.36152300e+00  1.96681400e+00 -1.61357000e-01
C   2.14574000e+01  1.21678000e+01  6.90796000e+00 -3.53397000e-01 -5.76007000e-01 -2.27914100e+00
C   1.86442000e+01  9.84260000e+00  6.13763000e+00 -1.87651700e+00  1.70267300e+00 -2.99092000e-01
C   1.78867000e+01  1.10584000e+01  6.48519000e+00  2.08637600e+00 -2.74943000e-01 -1.20132000e-01
C   2.26973000e+01  1.16197000e+01  6.47922000e+00  3.99432000e-01  1.09409500e+00  1.79725000e+00
C   1.65034000e+01  1.11726000e+01  6.41083000e+00 -6.86368000e-01 -7.25609000e-01  9.26331000e-01
C   2.13677000e+01  1.35328000e+01  7.17821000e+00  1.21995000e+00  4.68434000e-01  7.62066000e-01
H  -5.27716000e+00  1.20663000e+01  6.84001000e+00  5.17830000e-02 -1.16694800e+00 -9.48370000e-01
H  -6.85150000e-01  1.43208000e+01  7.89659000e+00 -1.38267200e+00  6.69470000e-02 -8.33351000e-01
H  -3.50032000e+00  1.83701000e+01  6.94036000e+00 -8.92626000e-01  4.91673000e-01 -5.88170000e-02
H  -7.73161000e+00  1.53713000e+01  7.56858000e+00  1.26278000e-01 -1.34216500e+00 -1.73959000e-01
H   1.32456000e+01  1.28875000e+00  6.00604000e+00 -6.48384000e-01  8.56115000e-01 -2.20300000e-03
H   5.13438000e+00  1.17851000e+01  7.63913000e+00 -1.11995000e-01 -1.47944000e-01 -6.35570000e-02
H   7.14022000e+00  1.03513000e+01  7.28540000e+00 -4.95619000e-01 -2.03912200e+00  3.97381000e-01
H   3.39273000e+00  1.85291000e+01  7.19041000e+00  3.78307000e-01  3.21765000e-01  3.94866000e-01
H   1.14396000e+00  1.39956000e+01  7.49484000e+00 -9.93504000e-01  9.95145000e-01 -2.60556000e-01
H  -1.70912000e+00  2.49990000e+01  6.25490000e+00 -1.02397800e+00 -5.57701000e-01  5.13163000e-01
H  -2.41530000e+00  1.99466000e+01  6.89174000e+00 -2.43026000e-01  9.87795000e-01 -1.71039000e-01
H   2.50341000e+00  2.00179000e+01  6.77615000e+00  2.82740000e-02  8.09380000e-02 -6.49100000e-02
H   1.26106000e+01  6.02111000e+00  6.04519000e+00  2.43081000e-01  2.62683000e-01  4.71770000e-02
H   1.75009000e+01  6.26825000e+00  5.17561000e+00 -1.74469300e+00  3.08108000e-01 -7.59189000e-01
H   1.73736000e+01  1.45126000e+00  4.93868000e+00  8.73250000e-02 -1.03567200e+00 -1.03960000e-01
H   1.40989000e+01  1.19251000e+01  6.41087000e+00 -3.09489000e-01  8.47729000e-01  3.87955000e-01
H   1.16899000e+01  7.69488000e+00  6.50559000e+00 -1.17150900e+00 -1.46411900e+00 -3.07058000e-01
H   1.84413000e+01  8.02923000e+00  5.13990000e+00  6.30885000e-01 -1.54147000e+00 -3.15516000e-01
H   9.69026000e+00  1.35268000e+01  6.85510000e+00 -1.63676600e+00  9.88461000e-01 -1.42561000e-01
H   7.66674000e+00  1.52741000e+01  6.78332000e+00 -1.41722000e-01 -2.07964200e+00  5.13581000e-01
H   2.43639000e+00  2.50021000e+01  5.01254000e+00 -3.71991000e-01 -2.09447000e-01  3.35344000e-01
H   1.60076000e+01  1.20195000e+01  6.92136000e+00  4.01716000e-01 -1.76198000e-01 -6.20757000e-01
H   2.27503000e+01  1.06477000e+01  6.02515000e+00  8.89700000e-02 -5.76334000e-01  1.45125000e-01
H   2.04966000e+01  1.41474000e+01  7.17303000e+00 -1.19854700e+00 -3.18888000e-01  3.95411000e-01
96
energy=-14443.70061304878 config_type=FromPyNEP pbc="T T T" Lattice="30.159 0.0 0.0 -15.08 26.119 0.0 0.0 0.0 15.0" Properties=species:S:1:pos:R:3:force:R:3
B  -4.98461000e+00  1.43863000e+01  6.15221000e+00 -2.53673900e+00 -6.38138000e-01 -1.26643600e+00
B   4.99861000e+00  1.45369000e+01  6.91518000e+00 -1.86177800e+00  1.52531700e+00  5.61478000e-01
B  -1.43098000e-01  2.33243000e+01  5.87676000e+00  2.45514300e+00 -1.40427100e+00 -2.90427000e-01
B   1.48716000e+01  2.94807000e+00  7.05530000e+00 -8.05296000e-01  4.43592000e-01 -1.32775100e+00
B   1.01894000e+01  1.17343000e+01  6.97605000e+00  3.68027300e+00 -3.86544800e+00  1.14753000e+00
B   2.01529000e+01  1.15349000e+01  6.28447000e+00 -3.28746000e-01  4.10953000e-01  1.19692000e-01
O  -3.81623000e+00  1.37110000e+01  6.31801000e+00  3.00427000e+00  7.49443000e-01  6.31281000e-01
O  -4.92705000e+00  1.57279000e+01  5.74192000e+00  1.79077200e+00  1.57426000e-01  8.66018000e-01
O   4.71982000e+00  1.59941000e+01  6.96124000e+00  4.75692200e+00 -1.72271200e+00 -3.23812000e-01
O   3.66397000e+00  1.39112000e+01  6.83094000e+00  1.04480000e+00  1.66043900e+00  9.24082000e-01
O   9.67862000e-01  2.25373000e+01  6.25513000e+00  7.45040000e-01 -1.63204500e+00  5.90904000e-01
O  -1.11979000e+00  2.24942000e+01  5.47738000e+00 -2.77935300e+00 -2.22077000e+00  5.57031000e-01
O   1.60468000e+01  3.69109000e+00  7.01843000e+00 -2.07859000e-01  1.64896000e-01  1.08616100e+00
O   1.37266000e+01  3.85971000e+00  7.08604000e+00  2.49190000e-01 -1.37780700e+00  1.67859000e-01
O   1.03302000e+01  1.02642000e+01  7.16029000e+00 -1.50476100e+00  1.46484600e+00 -2.09666000e-01
O   1.15298000e+01  1.22537000e+01  6.93580000e+00 -2.07082900e+00  1.60946200e+00  1.29254000e-01
O   1.88821000e+01  1.20999000e+01  6.41969000e+00 -4.56634000e-01 -9.88718000e-01  1.56510000e-02
O   2.00126000e+01  1.01522000e+01  6.26025000e+00  2.67604000e+00 -1.62040800e+00  1.04395000e-01
C  -6.24581000e+00  1.21584000e+01  6.31656000e+00 -3.51997400e+00  2.37312700e+00 -1.23772900e+00
C  -2.83161000e+00  1.47467000e+01  6.21068000e+00  7.58500000e-02  2.79930300e+00 -3.21905000e-01
C  -3.54091000e+00  1.59746000e+01  5.90654000e+00  8.34926000e-01 -1.50552600e+00  5.48455000e-01
C  -1.44877000e+00  1.49432000e+01  6.46652000e+00 -1.09978900e+00 -2.61985500e+00  8.26488000e-01
C  -6.33082000e+00  1.35963000e+01  6.16138000e+00  2.29038800e+00  5.30306000e-01  1.99300000e-01
C  -7.48554000e+00  1.43932000e+01  5.98002000e+00  3.58873000e-01  9.60019000e-01  1.38459900e+00
C  -2.88828000e+00  1.71698000e+01  6.04043000e+00  1.66483000e-01  2.53478600e+00 -8.54116000e-01
C   1.47786000e+01  4.48236000e-01  7.72085000e+00 -7.54620000e-02  1.61070000e-01 -1.65415100e+00
C   6.37190000e+00  1.24982000e+01  7.06584000e+00  2.22515300e+00  1.26065600e+00  1.09940500e+00
C   7.60562000e+00  1.17818000e+01  7.08955000e+00  2.22223000e-01 -1.08848500e+00 -3.37593000e-01
C  -1.44813000e+00  1.73818000e+01  6.23281000e+00 -1.67130000e+00  1.60343000e-01  2.62683000e-01
C   6.42882000e+00  1.39049000e+01  7.10798000e+00  6.69722000e-01  1.41084800e+00 -8.34813000e-01
C   2.75634000e+00  1.74187000e+01  6.66411000e+00  4.66294800e+00  1.54426100e+00  2.82788300e+00
C  -7.15179000e-01  1.61630000e+01  6.44309000e+00 -2.01636700e+00  1.10757100e+00 -4.80351000e-01
C   1.42142000e+00  1.74825000e+01  6.70766000e+00 -4.44663000e+00 -1.48835600e+00 -8.41123000e-01
C  -8.19886000e-01  1.87781000e+01  6.33460000e+00  1.68786000e-01 -1.95142400e+00 -7.61764000e-01
C   6.93057000e-01  1.61833000e+01  6.63651000e+00  3.92409000e-01  9.22129000e-01  9.38511000e-01
C   3.45633000e+00  1.61608000e+01  6.86411000e+00 -3.70043100e+00  4.39026300e+00 -2.34930000e-01
C   6.03566000e-01  1.87412000e+01  6.61758000e+00  7.64022000e-01  6.70613000e-01 -8.04732000e-01
C   1.33896000e+00  1.49651000e+01  6.85647000e+00  4.99924000e-01 -8.78795000e-01 -9.97938000e-01
C   2.71366000e+00  1.50557000e+01  6.97156000e+00  5.97756000e-01 -4.36082100e+00 -1.20633800e+00
C  -1.51392000e+00  1.99886000e+01  5.90612000e+00  8.84872000e-01 -2.07843100e+00  1.45842600e+00
C   1.31339000e+00  1.99775000e+01  6.55791000e+00  1.09795600e+00  2.27272000e+00 -3.58110000e-02
C   5.44107000e-01  2.11593000e+01  6.28915000e+00  1.70243000e+00  5.72032000e-01  5.48091000e-01
C  -8.04365000e-01  2.11501000e+01  5.97083000e+00  3.46339000e-01  1.77759500e+00 -1.54649500e+00
C  -1.38550000e-02  2.48203000e+01  6.02478000e+00 -8.55982000e-01  1.53238400e+00 -4.82640000e-02
C   2.54747000e-01  2.57956000e+01  5.04681000e+00  1.55093900e+00  8.07073000e-01 -1.13446500e+00
C  -3.30165000e-01  2.52312000e+01  7.35113000e+00 -3.34093000e-01 -1.00661200e+00 -1.99352000e-01
C   1.49566000e+01  1.40900000e+00  6.66797000e+00  1.72520000e-02  1.04777100e+00  1.91449400e+00
C   1.56279000e+01  4.99811000e+00  7.15828000e+00  6.42304000e-01  1.01566600e+00 -8.85005000e-01
C   1.64109000e+01  6.10232000e+00  7.03388000e+00  3.36505000e-01  1.37670800e+00  8.43698000e-01
C   1.53402000e+01  1.06202000e+00  5.35724000e+00 -1.44346900e+00 -1.92744200e+00  2.02963000e+00
C   1.42580000e+01  5.14903000e+00  7.10154000e+00  6.16697000e-01 -1.77887000e+00  9.94570000e-02
C   1.36267000e+01  6.33915000e+00  6.92465000e+00  1.16781700e+00 -9.26454000e-01  1.14350000e-01
C   1.66346000e+01  8.62329000e+00  6.86248000e+00  8.75708000e-01 -8.26981000e-01  3.11822000e-01
C   1.59379000e+01  9.86839000e+00  6.81634000e+00 -5.03545000e-01  8.00094000e-01  3.62496000e-01
C   1.58036000e+01  7.43359000e+00  6.97530000e+00  3.27747000e-01 -1.57953700e+00 -3.92135000e-01
C   1.23559000e+01  1.12294000e+01  7.10299000e+00  2.35756800e+00 -2.32716100e+00  1.78373000e-01
C   1.37273000e+01  8.79415000e+00  7.02076000e+00 -2.62617200e+00 -9.64311000e-01 -6.90748000e-01
C   1.37585000e+01  1.11715000e+01  7.07365000e+00  1.10814000e-01  2.32950500e+00 -4.60783000e-01
C   1.16468000e+01  1.00079000e+01  7.22048000e+00  1.36113900e+00 -2.56564000e-01 -1.07029900e+00
C   8.93610000e+00  1.23838000e+01  7.21458000e+00 -4.97944700e+00  3.17326000e+00 -7.71537000e-01
C   1.44599000e+01  9.99302000e+00  6.95637000e+00  5.36640000e-01 -2.01104300e+00  3.82517000e-01
C   1.43599000e+01  7.53821000e+00  6.88633000e+00  1.89883300e+00 -1.22353200e+00  8.62966000e-01
C   1.22736000e+01  8.76142000e+00  7.10136000e+00 -1.84461100e+00  1.85670000e-02  8.54425000e-01
C   7.72964000e+00  1.45866000e+01  7.14422000e+00 -5.08616000e-01 -3.25678300e+00 -4.85430000e-02
C   8.92370000e+00  1.38369000e+01  7.24393000e+00 -1.22613200e+00 -9.12416000e-01  3.21076000e-01
C   1.66826000e+01  1.10450000e+01  6.68580000e+00  2.14165000e-01  1.32232700e+00 -4.74065000e-01
C   1.80451000e+01  1.09611000e+01  6.58665000e+00 -8.57968000e-01  1.42638200e+00  2.64054000e-01
C   2.15008000e+01  1.23134000e+01  6.27368000e+00 -2.19950200e+00 -2.00303800e+00 -4.19719000e-01
C   1.81088000e+01  8.48874000e+00  6.78487000e+00 -6.53304000e-01  1.65399200e+00 -1.27413900e+00
C   2.26423000e+01  1.15248000e+01  6.30750000e+00  3.02146700e+00 -1.51002000e-01  1.24730500e+00
C   1.87558000e+01  9.77083000e+00  6.57937000e+00 -1.15100500e+00 -1.45347300e+00  3.19380000e-02
C   2.14706000e+01  1.36827000e+01  6.08691000e+00  7.54700000e-02  1.70832500e+00 -1.75353100e+00
H  -5.35503000e+00  1.16186000e+01  6.14659000e+00  1.18004000e+00 -4.28364000e-01  3.86882000e-01
H  -7.38200000e+00  1.55963000e+01  5.98032000e+00 -3.88012000e-01 -3.05664500e+00 -3.68719000e-01
H  -9.41676000e-01  1.40702000e+01  6.91222000e+00 -1.49765000e-01  2.85792000e-01 -4.99262000e-01
H  -3.54584000e+00  1.80503000e+01  5.87552000e+00  5.14548000e-01 -3.40292000e-01  2.10022000e-01
H   1.46367000e+01  7.35119000e-01  8.75067000e+00 -2.71407000e-01  2.49440000e-01  2.18403000e-01
H   5.33316000e+00  1.22686000e+01  7.21613000e+00 -1.72612000e-01 -1.91173800e+00 -4.17796000e-01
H   7.56388000e+00  1.06838000e+01  6.89622000e+00  9.20310000e-02  6.99047000e-01  4.14479000e-01
H   3.31278000e+00  1.84037000e+01  7.01307000e+00 -6.57397000e-01 -2.04906300e+00 -1.39984300e+00
H   8.35021000e-01  1.39711000e+01  6.66615000e+00  7.62038000e-01  1.24756400e+00  4.93585000e-01
H   2.49843000e+00  2.01233000e+01  6.64679000e+00 -2.87163000e+00 -5.26632000e-01 -4.94720000e-02
H  -2.55763000e+00  1.98692000e+01  5.77546000e+00 -9.88814000e-01  3.30495000e-01 -6.01729000e-01
H  -7.09482000e-01  2.44168000e+01  8.01078000e+00  6.06956000e-01  7.87538000e-01  4.16220000e-02
H   1.74642000e+01  5.88503000e+00  7.19986000e+00  2.16134000e-01  6.10878000e-01 -4.29561000e-01
H   1.54370000e+01  1.84554000e+00  4.65925000e+00  4.10052000e-01  6.37936000e-01 -1.10980200e+00
H   1.26464000e+01  6.12453000e+00  6.68529000e+00 -2.55775700e+00  7.54023000e-01 -2.66842000e-01
H   1.44337000e+01  1.20301000e+01  7.02168000e+00 -8.43473000e-01  4.63643000e-01  3.97810000e-02
H   1.14496000e+01  7.86626000e+00  7.16831000e+00  2.80358400e+00  1.85749800e+00 -2.72360000e-01
H   9.85787000e+00  1.43661000e+01  7.37932000e+00  2.52265000e-01  1.33528000e-01 -2.35052000e-01
H   7.92651000e+00  1.55840000e+01  6.93625000e+00 -4.91458000e-01  2.22376700e+00  4.35270000e-02
H   6.75627000e-01  2.55910000e+01  4.02206000e+00 -8.14352000e-01 -4.58718000e-01  9.60823000e-01
H   1.62801000e+01  1.20673000e+01  6.53442000e+00 -1.24475000e-01 -7.57238000e-01  3.10190000e-01
H   2.27444000e+01  1.04465000e+01  6.51976000e+00 -1.09087900e+00  2.96214000e-01 -4.19519000e-01
H   1.85622000e+01  7.45803000e+00  6.59542000e+00 -3.86901000e-01  1.77896700e+00  4.90448000e-01
H   2.05744000e+01  1.41733000e+01  5.66905000e+00 -8.07710000e-02 -2.59628000e-01  9.70250000e-01
96
energy=-14443.53312730122 config_type=FromPyNEP pbc="T T T" Lattice="30.159 0.0 0.0 -15.08 26.119 0.0 0.0 0.0 15.0" Properties=species:S:1:pos:R:3:force:R:3
B  -4.96138000e+00  1.44955000e+01  7.29449000e+00  3.52931000e-01  2.95812600e+00  7.85876000e-01
B   4.92751000e+00  1.45887000e+01  6.04959000e+00 -1.21722500e+00 -4.73714000e-01  1.97490000e-02
B  -1.73994000e-01  2.32173000e+01  5.77140000e+00  1.10803200e+00 -7.80684000e-01 -9.73311000e-01
B   1.53828000e+01  2.91440000e+00  7.06034000e+00 -3.46742000e-01  1.77734900e+00 -4.29188000e-01
B   1.00890000e+01  1.13935000e+01  6.74411000e+00  2.06097000e-01 -8.01276000e-01  3.35897000e-01
B   2.01056000e+01  1.16072000e+01  7.05005000e+00  9.75779000e-01  1.55550200e+00 -7.10700000e-03
O  -3.84608000e+00  1.38828000e+01  6.76989000e+00  1.39033900e+00 -8.92221000e-01  4.91300000e-02
O  -4.63981000e+00  1.59115000e+01  7.59427000e+00 -2.34150100e+00 -1.97060000e+00 -5.73373000e-01
O   3.65847000e+00  1.39503000e+01  6.13498000e+00 -3.55266000e-01  8.07487000e-01  2.79236000e-01
O   4.74739000e+00  1.59489000e+01  5.80305000e+00  6.47924000e-01  6.69625000e-01 -2.59686000e-01
O  -1.14838000e+00  2.23903000e+01  6.33551000e+00 -1.46249000e+00  1.64117400e+00  4.89142000e-01
O   7.68981000e-01  2.23743000e+01  5.05724000e+00 -6.71561000e-01  3.89390000e-01  1.26981300e+00
O   1.41329000e+01  3.65921000e+00  6.97427000e+00  1.71063700e+00  8.09986000e-01  4.39971000e-01
O   1.64106000e+01  3.82636000e+00  7.54166000e+00 -1.94157000e-01 -2.06745500e+00 -4.83960000e-02
O   1.14039000e+01  1.20179000e+01  6.86482000e+00 -3.42021000e+00  1.64606800e+00 -2.73147000e-01
O   1.02659000e+01  9.92407000e+00  6.84591000e+00  3.49302000e-01  2.62130300e+00  3.01800000e-02
O   1.88434000e+01  1.22786000e+01  6.68013000e+00  2.13920800e+00 -7.25908000e-01  6.15321000e-01
O   1.99944000e+01  1.02483000e+01  7.36908000e+00 -1.06814400e+00  1.43381300e+00 -3.39601000e-01
C  -6.27891000e+00  1.25615000e+01  6.96138000e+00 -6.04166000e-01 -1.35811700e+00 -1.11374000e-01
C  -1.47926000e+00  1.48697000e+01  6.41518000e+00  1.20378000e-01 -3.36009000e-01 -2.81382000e-01
C  -2.82086000e+00  1.73632000e+01  7.02251000e+00 -2.95936000e+00 -4.68268000e-01 -5.87052000e-01
C  -2.81700000e+00  1.48043000e+01  6.73079000e+00 -8.49935000e-01  3.76609700e+00  4.74054000e-01
C  -3.42017000e+00  1.61061000e+01  7.08770000e+00  2.12110000e+00 -1.14991600e+00  2.61507000e-01
C  -6.30842000e+00  1.38219000e+01  7.42599000e+00 -4.81928000e-01  1.86771900e+00  9.27961000e-01
C  -7.49769000e+00  1.44288000e+01  7.86539000e+00  5.07993000e-01 -8.55320000e-01 -1.12565200e+00
C   1.41596000e+01  8.16801000e-01  6.78791000e+00 -7.79918000e-01 -2.97345400e+00 -1.65956200e+00
C   6.18412000e+00  1.23754000e+01  6.49668000e+00 -9.01867000e-01 -4.85208000e-01  2.29786600e+00
C   7.41900000e+00  1.16803000e+01  6.68424000e+00  1.33310700e+00 -1.46051700e+00  7.55396000e-01
C  -1.50119000e+00  1.74076000e+01  6.54372000e+00  2.05735000e-01  1.76132300e+00 -7.47343000e-01
C   3.38310000e+00  1.62140000e+01  5.77020000e+00  1.39957000e-01 -1.47462600e+00  1.15074500e+00
C  -8.98616000e-01  1.87331000e+01  6.11158000e+00  3.72942400e+00 -3.42926400e+00 -5.91757000e-01
C   1.34413000e+00  1.48778000e+01  5.98855000e+00 -1.87064000e-01 -1.93449000e-01  4.78239000e-01
C  -8.44437000e-01  1.61781000e+01  6.34700000e+00  2.02346700e+00 -1.95018400e+00 -1.06228300e+00
C   6.55333000e-01  1.61249000e+01  5.95871000e+00 -4.06015200e+00 -1.49671800e+00  9.58359000e-01
C   6.20295000e+00  1.37496000e+01  6.21534000e+00  3.39560800e+00  9.88447000e-01 -1.49195100e+00
C   2.70879000e+00  1.49928000e+01  6.05828000e+00  8.07816000e-01 -9.33760000e-01 -1.32961200e+00
C   1.24349000e+00  1.73131000e+01  5.70516000e+00  2.97318500e+00  4.72979300e+00 -1.22279100e+00
C   5.39839000e-01  1.86608000e+01  5.52499000e+00 -2.96436100e+00  1.42644000e-01  1.37570900e+00
C   2.70930000e+00  1.73864000e+01  5.64115000e+00 -7.32930000e-02  1.16530500e+00 -6.58494000e-01
C  -8.81132000e-01  2.11112000e+01  6.04396000e+00  2.90113600e+00 -9.72694000e-01 -1.04455100e+00
C  -1.41670000e-02  2.47486000e+01  5.90871000e+00  4.35515000e-01  1.60059600e+00  7.16226000e-01
C  -1.48971000e+00  1.99322000e+01  6.37859000e+00 -1.55524300e+00  1.23360100e+00  8.39936000e-01
C  -1.10235000e+00  2.55669000e+01  6.39247000e+00  1.53010500e+00  4.43343000e-01  6.93112000e-01
C   3.77770000e-01  2.10764000e+01  5.37697000e+00 -1.92751000e-01  1.93181000e-01 -1.08529100e+00
C   1.07264000e+00  1.99286000e+01  5.02012000e+00 -1.80830300e+00 -2.50619300e+00  2.15859100e+00
C   1.53508000e+01  1.44059000e+00  6.49303000e+00 -2.35610000e-01  1.03894200e+00  1.50724500e+00
C   1.63789000e+01  7.26243000e-01  5.89510000e+00  1.91578100e+00 -4.39118000e-01  2.83700000e-02
C   1.37626000e+01  6.18339000e+00  6.98326000e+00  3.83811500e+00 -1.66250300e+00  1.56932600e+00
C   1.45317000e+01  4.99001000e+00  7.28572000e+00 -3.33865900e+00  1.50736100e+00 -1.01928000e+00
C   1.65197000e+01  6.26291000e+00  7.77691000e+00  1.25133800e+00  2.00096200e+00  2.26014000e-01
C   1.58231000e+01  5.06912000e+00  7.70172000e+00  1.23365600e+00  4.11950000e-02 -9.97885000e-01
C   1.65584000e+01  8.89272000e+00  7.31874000e+00 -1.55259600e+00 -1.14671400e+00  6.83668000e-01
C   1.58507000e+01  7.56139000e+00  7.48086000e+00  2.00939000e-01 -1.65243600e+00 -5.32204000e-01
C   1.44567000e+01  7.44753000e+00  7.07378000e+00 -3.03169000e-01  6.82670000e-02 -3.62668000e-01
C   1.37088000e+01  8.67310000e+00  6.68144000e+00  1.10958300e+00 -9.32102000e-01  1.75001900e+00
C   1.23168000e+01  1.10705000e+01  6.87486000e+00  3.70534000e-01 -2.71405300e+00 -2.02542200e+00
C   1.58364000e+01  1.00689000e+01  6.99083000e+00 -4.15490000e-02 -7.72974000e-01 -1.78288500e+00
C   1.23020000e+01  8.57575000e+00  6.69009000e+00 -1.04756600e+00  1.51015600e+00  8.04660000e-01
C   1.43608000e+01  9.94949000e+00  6.70096000e+00  1.34648800e+00  5.19653000e-01 -8.09653000e-01
C   1.36224000e+01  1.11513000e+01  6.41031000e+00  1.24159100e+00  1.27513000e+00  2.28304000e+00
C   1.16603000e+01  9.77104000e+00  6.87062000e+00 -5.98600000e-02  1.25697100e+00 -3.71829000e-01
C   8.71373000e+00  1.21867000e+01  6.49003000e+00  1.03017900e+00  2.75489100e+00 -1.02311400e+00
C   8.77620000e+00  1.35955000e+01  6.06162000e+00 -5.74966000e-01 -5.45992000e-01  5.52116000e-01
C   7.56415000e+00  1.43303000e+01  5.92248000e+00 -4.15635000e-01 -2.57403800e+00  1.22411800e+00
C   1.29196000e+00  2.54019000e+01  5.70214000e+00 -2.76354300e+00  1.61676400e+00 -6.46207000e-01
C   1.66524000e+01  1.12298000e+01  6.67531000e+00 -4.30535700e+00 -9.03594000e-01  7.11676000e-01
C   1.79523000e+01  1.12575000e+01  6.86709000e+00  2.12210800e+00 -1.21967000e-01  1.65795000e-01
C   2.14902000e+01  1.23741000e+01  7.22058000e+00 -7.93991000e-01  4.25919000e-01 -8.25780000e-02
C   2.27005000e+01  1.18091000e+01  6.85864000e+00  1.06712500e+00 -3.92854000e-01 -9.54916000e-01
C   1.86040000e+01  1.01214000e+01  7.30135000e+00  1.07279500e+00 -1.25252400e+00 -3.73650000e-02
C   1.79369000e+01  8.98419000e+00  7.53839000e+00 -1.08280000e+00 -1.44722300e+00  4.80944000e-01
C   2.14912000e+01  1.37175000e+01  7.72607000e+00 -2.51850100e+00 -1.36557900e+00  1.22118100e+00
H  -5.24796000e+00  1.24469000e+01  6.73926000e+00  5.31530000e-01 -2.47375100e+00 -1.00614000e+00
H  -9.07230000e-01  1.39489000e+01  6.16888000e+00 -5.40188000e-01  7.83270000e-01  1.57456000e-01
H  -3.70638000e+00  1.81188000e+01  7.02615000e+00  2.32503100e+00 -4.44546000e-01  3.03712000e-01
H  -7.29084000e+00  1.54431000e+01  7.97960000e+00 -9.20906000e-01  2.03199300e+00  1.13499100e+00
H   1.32997000e+01  1.35097000e+00  7.09916000e+00 -7.35117000e-01  5.53158000e-01  6.70707000e-01
H   7.74601000e+00  1.07094000e+01  7.13851000e+00 -2.48188300e+00 -6.26880000e-02 -2.88866000e-01
H   5.16514000e+00  1.20327000e+01  6.95944000e+00  1.98316000e+00 -1.12273000e-01 -1.25447300e+00
H   7.87355000e-01  1.39075000e+01  6.01214000e+00  9.02823000e-01  9.35175000e-01  2.38421000e-01
H   3.31939000e+00  1.83256000e+01  5.47808000e+00 -1.06635100e+00 -9.60821000e-01  1.58561000e-01
H  -2.41174000e+00  2.00022000e+01  6.94161000e+00 -3.17168000e-01 -2.37024000e-01  2.57600000e-02
H  -2.04752000e+00  2.51121000e+01  6.62508000e+00 -4.82958000e-01 -3.32050000e-01 -1.13926000e-01
H   2.03061000e+00  1.98662000e+01  4.61298000e+00  1.52935700e+00  5.49447000e-01 -8.81495000e-01
H   1.71623000e+01  1.51428000e+00  5.74203000e+00  4.58814000e-01 -1.82391900e+00 -4.86710000e-01
H   1.27630000e+01  5.94904000e+00  6.80112000e+00 -1.71951400e+00  4.88931000e-01 -7.60074000e-01
H   1.76455000e+01  6.16970000e+00  7.97881000e+00 -1.68419900e+00  3.56909000e-01 -2.99215000e-01
H   1.41908000e+01  1.21704000e+01  6.32679000e+00 -1.30953300e+00 -1.92085300e+00  2.77450000e-02
H   1.15837000e+01  7.78888000e+00  6.89639000e+00  7.61432000e-01 -9.52083000e-01 -5.51888000e-01
H   9.76323000e+00  1.41295000e+01  5.97339000e+00 -1.03042600e+00 -5.74645000e-01 -7.32220000e-02
H   7.73777000e+00  1.53570000e+01  5.78994000e+00 -4.30943000e-01  1.57939200e+00 -5.00134000e-01
H   1.99859000e+00  2.48118000e+01  5.11845000e+00  5.18922000e-01  3.66705000e-01  4.25282000e-01
H   1.61139000e+01  1.21113000e+01  6.50089000e+00 -5.20921000e-01  1.42854300e+00 -6.72081000e-01
H   2.27292000e+01  1.08657000e+01  6.33604000e+00 -8.31000000e-03 -5.39322000e-01  1.14817000e-01
H   1.83298000e+01  8.09991000e+00  7.96680000e+00  1.20103700e+00 -6.71612000e-01  1.60538000e-01
H   2.04509000e+01  1.38715000e+01  8.17273000e+00  1.54397100e+00  1.22676600e+00 -7.01456000e-01
96
energy=-14443.002046263697 config_type=FromPyNEP pbc="T T T" Lattice="30.159 0.0 0.0 -15.08 26.119 0.0 0.0 0.0 15.0" Properties=species:S:1:pos:R:3:force:R:3
B  -5.06494000e+00  1.48251000e+01  7.05302000e+00 -2.36330200e+00 -8.46050000e-01 -1.27520300e+00
B   4.56090000e+00  1.38685000e+01  6.32430000e+00  7.47838000e-01 -6.15750000e-01  1.30172500e+00
B   6.44148000e-01  2.31549000e+01  6.79765000e+00 -1.31412100e+00 -4.36924000e-01  3.78260000e-02
B   1.53165000e+01  3.01853000e+00  6.79137000e+00 -6.72658000e-01  1.47066000e-01 -2.01661500e+00
B   1.00148000e+01  1.12511000e+01  5.99714000e+00 -6.28023000e-01  3.27124000e-01  2.05138700e+00
B   1.98189000e+01  1.21173000e+01  7.07583000e+00 -1.68938200e+00  2.10737000e-01 -3.49595000e-01
O  -4.78435000e+00  1.59052000e+01  6.16284000e+00 -3.22189900e+00  9.99570000e-02 -4.28628000e-01
O  -3.98859000e+00  1.43849000e+01  7.78606000e+00  6.44504000e-01  2.04431100e+00 -1.36963000e-01